/*--------------------------------*- C++ -*----------------------------------*\
 =========                 |                                                 
 \      /  F ield         | OpenFOAM: The Open Source CFD Toolbox           
  \    /   O peration     | Version:  10                                    
   \  /    A nd           | Web:      www.OpenFOAM.org                      
    \/     M anipulation  |                                                 
\*---------------------------------------------------------------------------*/
FoamFile
{
    format      ascii;
    class       volVectorField;
    location    "0";
    object      U;
}
// ************************************************************************* //
dimensions [0 1 -1 0 0 0 0];
internalField   nonuniform List<vector>
45
(
    (0 0 0)
    (0.14231483827328514 0 0)
    (0.28173255684142967 0 0)
    (0.4154150130018864 0 0)
    (0.5406408174555976 0 0)
    (0.654860733945285 0 0)
    (0.7557495743542583 0 0)
    (0.8412535328311811 0 0)
    (0.9096319953545183 0 0)
    (0.9594929736144974 0 0)
    (0.9898214418809327 0 0)
    (1.0 0 0)
    (0.9898214418809328 0 0)
    (0.9594929736144974 0 0)
    (0.9096319953545184 0 0)
    (0.8412535328311814 0 0)
    (0.7557495743542583 0 0)
    (0.6548607339452852 0 0)
    (0.5406408174555974 0 0)
    (0.4154150130018863 0 0)
    (0.28173255684143006 0 0)
    (0.14231483827328517 0 0)
    (1.2246467991473532e-16 0 0)
    (-0.14231483827328492 0 0)
    (-0.2817325568414294 0 0)
    (-0.4154150130018865 0 0)
    (-0.5406408174555976 0 0)
    (-0.654860733945285 0 0)
    (-0.7557495743542582 0 0)
    (-0.8412535328311808 0 0)
    (-0.909631995354518 0 0)
    (-0.9594929736144974 0 0)
    (-0.9898214418809327 0 0)
    (-1.0 0 0)
    (-0.9898214418809328 0 0)
    (-0.9594929736144975 0 0)
    (-0.9096319953545182 0 0)
    (-0.841253532831181 0 0)
    (-0.7557495743542582 0 0)
    (-0.6548607339452855 0 0)
    (-0.5406408174555982 0 0)
    (-0.4154150130018872 0 0)
    (-0.2817325568414298 0 0)
    (-0.1423148382732853 0 0)
    (0 0 0)
);
boundaryField
{
    inlet
    {
        type            fixedValue;
        value           uniform (0 0 0);
    }
    outlet
    {
        type            fixedValue;
        value           uniform (0 0 0);
    }
    sides
    {
        type            empty;
    }
}
// ************************************************************************* //
